ITEM: TIMESTEP
10000
ITEM: NUMBER OF ATOMS
6298
ITEM: BOX BOUNDS pp pp pp
0.0000000000000000e+00 3.1860000999999997e+01
0.0000000000000000e+00 5.5183001000000004e+01
0.0000000000000000e+00 5.2027001000000006e+01
ITEM: ATOMS id type xu yu zu c_1 c_2 c_3 
4 1 2.94827 2.30465 2.59111 0.040429 -4.44791 4 
12 1 6.19971 2.25962 2.54723 0.0516851 -4.46595 4 
20 1 9.38476 2.29108 2.4454 0.0295623 -4.49657 4 
28 1 12.4688 2.31157 2.61495 0.0933564 -4.51693 4 
1612 1 6.1229 2.29326 12.9208 0.0191498 -4.43996 4 
36 1 15.7052 2.25813 2.5104 0.0140918 -4.4966 4 
1800 2 15.6494 13.3094 10.9669 0.0333459 -4.49863 4 
91 1 4.57263 4.94817 2.6373 0.0404784 -4.42084 4 
99 1 7.67425 5.05176 2.59345 0.0486224 -4.50387 4 
107 1 10.9098 5.12401 2.5791 0.0072279 -4.49987 4 
115 1 14.0826 4.92837 2.56374 0.0198199 -4.4664 4 
1792 2 12.497 13.3261 11.1629 0.0261062 -4.38259 4 
84 1 2.95533 7.82792 2.5202 0.0103525 -4.45166 4 
92 1 6.20348 7.80128 2.59385 0.0639489 -4.51848 4 
100 1 9.35579 7.82526 2.57911 0.104871 -4.44007 4 
108 1 12.5137 7.7604 2.44272 0.0306113 -4.48838 4 
116 1 15.7033 7.65073 2.46078 0.0574785 -4.51026 4 
179 1 7.67244 10.6067 2.53478 0.000931472 -4.44415 4 
977 1 9.32219 11.4206 10.3675 0.0820974 -4.51569 4 
187 1 10.8694 10.5293 2.50148 0.041567 -4.4479 4 
195 1 14.0884 10.4809 2.39512 0.0180861 -4.42604 4 
1636 1 15.6762 2.31799 12.8606 0.0183162 -4.47267 4 
164 1 2.94024 13.1021 2.55866 0.0431187 -4.50403 4 
172 1 6.10456 13.1779 2.62856 0.0115316 -4.45536 4 
180 1 9.32363 13.2251 2.61166 0.176647 -4.45476 4 
1716 1 15.8288 7.83867 12.9246 0.117574 -4.47206 4 
1784 2 9.28552 13.2754 11.0388 0.0116514 -4.49568 4 
196 1 15.7301 13.346 2.5182 0.101561 -4.50502 4 
14 2 4.58134 3.10882 3.29396 0.0450782 -4.50281 4 
10 1 4.47656 3.16633 5.20998 0.0196872 -4.48645 4 
22 2 7.81705 3.24697 3.17862 0.0410978 -4.473 4 
18 1 7.66182 3.15246 5.12429 0.0120001 -4.47877 4 
30 2 10.8983 3.26886 3.21856 0.0273782 -4.50605 4 
26 1 10.885 3.22993 5.12405 0.113414 -4.50116 4 
38 2 14.081 3.13317 3.18441 0.0519556 -4.50063 4 
34 1 14.1511 3.24942 5.12549 0.0365359 -4.47174 4 
85 2 2.9261 5.98629 3.21501 0.118609 -4.35871 4 
93 2 6.06535 5.91219 3.2488 0.0551772 -4.46387 4 
89 1 6.04973 5.95097 5.16687 0.032095 -4.46783 4 
101 2 9.28702 5.94913 3.17245 0.0550401 -4.50421 4 
97 1 9.29396 6.00507 5.14807 0.00708271 -4.46509 4 
105 1 12.4196 6.00348 5.08728 0.0566529 -4.45489 4 
109 2 12.5294 5.97661 3.11555 0.0177881 -4.50754 4 
117 2 15.5798 5.85581 3.1734 0.0354399 -4.44117 4 
113 1 15.7192 6.00694 5.12721 0.000243876 -4.49859 4 
171 1 4.65367 10.2662 2.56023 0.0194864 -4.46254 4 
94 2 4.57871 8.59188 3.31373 0.0115273 -4.38823 4 
102 2 7.80143 8.67144 3.17038 0.0899611 -4.43335 4 
98 1 7.72516 8.69868 5.14719 0.0347311 -4.51273 4 
110 2 11.0558 8.76445 3.08299 0.029689 -4.43567 4 
106 1 10.9871 8.73901 5.04698 0.0163817 -4.45955 4 
118 2 14.0908 8.65393 3.10756 0.0350459 -4.47446 4 
114 1 13.9832 8.62648 5.07155 0.0753111 -4.47999 4 
165 2 3.16488 11.3119 3.21952 0.0211382 -4.44661 4 
173 2 6.06753 11.3674 3.32962 0.0111841 -4.45964 4 
181 2 9.31855 11.4709 3.16796 0.0235769 -4.46504 4 
177 1 9.36392 11.5383 5.10173 0.0595621 -4.50984 4 
188 1 12.5763 13.3099 2.53826 0.015208 -4.47545 4 
189 2 12.5283 11.4314 3.20045 0.0237982 -4.44384 4 
185 1 12.5697 11.4473 5.18418 0.0657922 -4.46777 4 
197 2 15.694 11.5298 3.21208 0.0249085 -4.42872 4 
193 1 15.6817 11.5562 5.10871 0.0394636 -4.45905 4 
808 2 2.89697 2.27114 5.75713 0.0522683 -4.4657 4 
804 1 2.88784 2.16467 7.80736 0.0364895 -4.44413 4 
816 2 6.05495 2.24953 5.81583 0.0358669 -4.52708 4 
812 1 6.08184 2.28176 7.75107 0.0142459 -4.51438 4 
824 2 9.31788 2.24244 5.80082 0.0759956 -4.43634 4 
820 1 9.28491 2.28508 7.86171 0.00496332 -4.4542 4 
832 2 12.4983 2.28334 5.76512 0.00765063 -4.46537 4 
828 1 12.4168 2.31127 7.73451 0.0551284 -4.47819 4 
840 2 15.7749 2.32271 5.84082 0.0606043 -4.44829 4 
895 2 4.39065 4.97036 5.79597 0.013072 -4.43655 4 
891 1 4.50508 4.95257 7.7587 0.0161162 -4.46682 4 
903 2 7.67139 5.02117 5.81921 0.00813735 -4.44495 4 
899 1 7.69564 4.9955 7.67264 0.030461 -4.46221 4 
911 2 10.8816 5.07193 5.86283 0.0763183 -4.50678 4 
907 1 10.8116 5.06322 7.7999 0.0404327 -4.48681 4 
919 2 14.098 5.12788 5.78776 0.0234635 -4.47407 4 
915 1 14.013 5.05079 7.74558 0.0339844 -4.47568 4 
81 1 2.8126 5.69307 5.10138 0.0433112 -4.55277 4 
888 2 2.89092 7.52265 5.84901 0.0310725 -4.37675 4 
896 2 6.18633 7.77838 5.77871 0.0761926 -4.47705 4 
892 1 6.19527 7.7097 7.72559 0.0557613 -4.49104 4 
904 2 9.3648 7.82052 5.73667 0.0291682 -4.48874 4 
900 1 9.33209 7.77044 7.72036 0.0182789 -4.49345 4 
908 1 12.3805 7.71699 7.89398 0.0217798 -4.45052 4 
912 2 12.4474 7.80408 5.85889 0.0176678 -4.42961 4 
920 2 15.6908 7.83191 5.72382 0.210417 -4.45997 4 
916 1 15.6599 7.79851 7.74968 0.032682 -4.48667 4 
90 1 4.47154 8.58266 5.25759 0.0340196 -4.54407 4 
975 2 4.63648 10.3811 5.84581 0.00759236 -4.4129 4 
971 1 4.60818 10.4511 7.82862 0.00780911 -4.50429 4 
983 2 7.80578 10.5464 5.75751 0.0848593 -4.48183 4 
979 1 7.76097 10.573 7.76239 0.13613 -4.49532 4 
991 2 10.9096 10.6303 5.74085 0.0469101 -4.45467 4 
987 1 10.8864 10.5542 7.74352 0.0416916 -4.49628 4 
999 2 14.1068 10.4652 5.75694 0.0135192 -4.46391 4 
995 1 14.0234 10.4802 7.70054 0.0165921 -4.50443 4 
161 1 3.21242 11.4377 5.13272 0.187667 -4.51283 4 
968 2 2.97266 13.2299 5.86785 0.106817 -4.48284 4 
964 1 2.97877 13.2918 7.84005 0.159085 -4.52614 4 
169 1 6.12484 11.3809 5.24723 0.04565 -4.53471 4 
976 2 6.17294 13.245 5.85079 0.0490253 -4.50489 4 
972 1 6.13173 13.2622 7.74749 0.133964 -4.51916 4 
984 2 9.35593 13.2887 5.79348 0.0409208 -4.49797 4 
980 1 9.4109 13.3306 7.72845 0.060404 -4.46118 4 
992 2 12.4047 13.2944 5.81574 0.177058 -4.44196 4 
988 1 12.4697 13.2524 7.73609 0.0342456 -4.50254 4 
1000 2 15.5838 13.26 5.85287 0.0463841 -4.42956 4 
836 1 15.6894 2.28738 7.77137 0.0493002 -4.48164 4 
814 2 4.51049 3.10392 8.46278 0.0418835 -4.46103 4 
810 1 4.54545 3.03605 10.465 0.0093004 -4.44548 4 
822 2 7.68709 3.1916 8.40028 0.069004 -4.51722 4 
830 2 10.833 3.216 8.44017 0.0958564 -4.4965 4 
838 2 14.06 3.2617 8.46711 0.034948 -4.43849 4 
834 1 14.0989 3.27596 10.3575 0.107532 -4.48351 4 
884 1 2.94483 7.77294 7.78236 0.0105463 -4.49298 4 
885 2 2.8303 5.92757 8.41338 0.0321824 -4.44 4 
881 1 2.9593 5.91405 10.3777 0.0174471 -4.49316 4 
893 2 6.08589 5.92179 8.31713 0.00130339 -4.50154 4 
889 1 6.06529 5.94249 10.2642 0.0244791 -4.50567 4 
901 2 9.28902 5.93387 8.43505 0.0887768 -4.46099 4 
897 1 9.20786 5.88036 10.3088 0.0375598 -4.50922 4 
909 2 12.4492 5.8129 8.49891 0.0631576 -4.46149 4 
905 1 12.5021 5.86688 10.3925 0.0379666 -4.42907 4 
917 2 15.7048 5.94157 8.35519 0.140052 -4.47557 4 
913 1 15.7043 5.88834 10.2726 0.00549818 -4.50404 4 
894 2 4.58467 8.62864 8.39851 0.0515031 -4.49056 4 
902 2 7.75059 8.70543 8.36154 0.0136412 -4.50927 4 
898 1 7.74237 8.6286 10.2643 0.0437258 -4.46807 4 
910 2 10.8564 8.73225 8.46807 0.138795 -4.5061 4 
906 1 10.865 8.73126 10.3897 0.0227007 -4.48604 4 
918 2 14.0363 8.60557 8.42192 0.0180804 -4.49156 4 
914 1 14.1058 8.69282 10.3565 0.0646109 -4.50752 4 
965 2 3.04061 11.485 8.43927 0.0386408 -4.42317 4 
961 1 2.99801 11.4412 10.4186 0.0317768 -4.5061 4 
973 2 6.17207 11.4488 8.37657 0.0775339 -4.51858 4 
969 1 6.26012 11.4283 10.3043 0.0397658 -4.42083 4 
981 2 9.34222 11.4784 8.45267 0.0388638 -4.5027 4 
985 1 12.4597 11.5249 10.3784 0.0812982 -4.44303 4 
989 2 12.4894 11.4371 8.3386 0.148065 -4.47691 4 
996 1 15.6617 13.2716 7.79784 0.0848659 -4.48062 4 
993 1 15.6264 11.5074 10.2518 0.0345888 -4.47751 4 
997 2 15.6026 11.4417 8.34978 0.0447914 -4.47282 4 
1608 2 2.88677 2.22008 11.0403 0.00268553 -4.51055 4 
1604 1 2.84212 2.21156 12.9957 0.0150548 -4.50686 4 
1616 2 6.13282 2.24422 11.0745 0.0414616 -4.44729 4 
1620 1 9.36255 2.20453 12.863 0.102225 -3.78341 3 
1624 2 9.30353 2.18513 10.9955 0.0271456 -4.48281 4 
1632 2 12.4682 2.27628 10.9589 0.067211 -4.49204 4 
1768 2 2.85805 13.2942 11.0884 0.0199104 -4.49117 4 
1640 2 15.6648 2.37324 10.9863 0.0109983 -4.49435 4 
1707 1 10.9088 5.01762 12.928 0.0204568 -4.5131 4 
1695 2 4.56776 4.99012 10.8806 0.0542315 -4.46213 4 
818 1 7.6677 3.14583 10.3353 0.0104649 -4.49668 4 
1703 2 7.61053 5.01008 10.9372 0.0525697 -4.50833 4 
1788 1 12.5408 13.427 13.0733 0.181109 -4.46459 4 
826 1 10.8559 3.2189 10.4027 0.0110875 -4.46607 4 
1711 2 10.8438 5.00299 10.938 0.0246089 -4.46922 4 
1776 2 6.12133 13.317 10.991 0.0823285 -4.469 4 
1719 2 14.0895 5.06907 11.043 0.0484803 -4.48746 4 
1700 1 9.32621 7.75018 13.0508 0.0414923 -4.44738 4 
1688 2 2.94791 7.77968 10.9988 0.0584559 -4.49085 4 
1696 2 6.13296 7.71904 10.9615 0.00258392 -4.50291 4 
1795 1 14.0812 10.536 12.9258 0.0121938 -4.47146 4 
1704 2 9.23462 7.70157 11.0057 0.0679814 -4.42707 4 
1780 1 9.33572 13.2335 13.0178 0.088224 -4.45485 4 
1712 2 12.4665 7.8165 11.0133 0.0473847 -4.44996 4 
1708 1 12.622 7.61485 12.9465 0.0157704 -4.47808 4 
1799 2 14.1257 10.5527 10.9759 0.0212518 -4.46882 4 
1720 2 15.7433 7.73131 10.9373 0.104099 -4.47745 4 
890 1 4.56902 8.68316 10.3938 0.0527204 -4.49827 4 
1775 2 4.58645 10.5148 11.0436 0.0796492 -4.47566 4 
1796 1 15.6499 13.3896 12.8865 0.02372 -4.49791 4 
1783 2 7.73701 10.5116 11.0011 0.0698923 -4.45988 4 
1715 1 14.0162 5.13315 12.985 0.0387152 -4.58045 4 
1791 2 10.9263 10.5254 11.0076 0.00915736 -4.51063 4 
1691 1 4.54895 4.96676 12.8322 0.0149968 -4.48228 4 
1684 1 2.82765 7.81777 12.9852 0.0518588 -4.47971 4 
1628 1 12.4843 2.32603 12.922 0.0636723 -4.4668 4 
1692 1 6.15077 7.7932 12.9367 0.143939 -4.50435 4 
1779 1 7.70806 10.5359 13.0079 0.00303542 -4.48367 4 
7289 1 6.05577 5.96978 52.0555 0.0500152 -4.49277 4 
7281 1 2.68725 5.8321 52.0408 0.0803252 -4.47259 4 
7361 1 3.0425 11.4337 52.0424 0.0135756 -4.46383 4 
3298 1 7.756 8.67305 25.8966 0.0168415 -4.47073 4 
1614 2 4.45304 3.16675 13.615 0.0423213 -4.46602 4 
1610 1 4.36332 3.08377 15.6035 0.022597 -4.45619 4 
3297 1 9.17834 5.9473 25.9705 0.0939277 -4.51014 4 
1622 2 7.79861 3.1553 13.5709 0.0360921 -4.48078 4 
1618 1 7.67171 3.07065 15.5201 0.00761605 -4.47835 4 
1630 2 10.8496 3.15383 13.5492 0.00763119 -4.4753 4 
1638 2 14.0496 3.23953 13.5194 0.0234207 -4.46167 4 
1634 1 13.9995 3.40028 15.4136 0.0392489 -4.53636 4 
1685 2 2.92546 5.9155 13.4755 0.00711524 -4.47713 4 
1681 1 2.97931 5.82494 15.4109 0.0114043 -4.45925 4 
3397 2 15.6591 11.3275 23.9965 0.0795679 -4.38039 4 
1693 2 6.12848 5.8821 13.5629 0.0135659 -4.48317 4 
1689 1 6.05793 5.88123 15.5421 0.0130544 -4.49672 4 
1701 2 9.30891 5.89234 13.5902 0.0396515 -4.51421 4 
1697 1 9.27405 5.84185 15.5387 0.090261 -4.48916 4 
1709 2 12.4356 5.93228 13.6055 0.0262176 -4.34413 4 
1705 1 12.5177 5.77653 15.5432 0.0581931 -4.60685 4 
1717 2 15.6855 5.99895 13.6226 0.0249285 -4.48827 4 
1713 1 15.6919 6.06513 15.538 0.000365811 -4.51238 4 
3377 1 9.32539 11.3766 25.8915 0.0180099 -4.44403 4 
1694 2 4.50841 8.6131 13.6126 0.00791584 -4.4827 4 
1690 1 4.56754 8.73414 15.5098 0.0204306 -4.47046 4 
1702 2 7.69304 8.71274 13.6729 0.0876886 -4.48864 4 
1698 1 7.82526 8.67372 15.6411 0.0535933 -4.40552 4 
1706 1 10.9284 8.56499 15.5772 0.0308647 -4.51489 4 
1710 2 10.9639 8.59541 13.6012 0.00158723 -4.46107 4 
1718 2 14.1789 8.65082 13.6106 0.0822294 -4.46942 4 
1714 1 14.1627 8.54511 15.5001 0.103438 -4.5368 4 
1765 2 2.91052 11.4742 13.6562 0.0196231 -4.47361 4 
1761 1 2.88861 11.4965 15.6542 0.0398743 -4.5109 4 
1773 2 6.14335 11.4122 13.6953 0.0317227 -4.49873 4 
1769 1 6.18541 11.3741 15.6595 0.0542873 -4.42185 4 
1781 2 9.43897 11.3552 13.5816 0.0214924 -4.43762 4 
1777 1 9.35018 11.4806 15.4584 0.119201 -4.42567 4 
1789 2 12.419 11.44 13.607 0.0629163 -4.41292 4 
1785 1 12.5632 11.4068 15.5368 0.131477 -4.45754 4 
3389 2 12.3461 11.5302 23.915 0.0562822 -4.48779 4 
1797 2 15.6366 11.5117 13.5547 0.151837 -4.45919 4 
1793 1 15.7263 11.4927 15.4173 0.0131219 -4.4154 4 
2408 2 2.76937 2.13049 16.1763 0.104188 -4.4816 4 
2404 1 2.92577 2.16912 18.0898 0.0982025 -4.46713 4 
2416 2 6.04523 2.18922 16.3047 0.0153118 -4.43797 4 
2424 2 9.21698 2.062 16.085 0.0387265 -4.38209 4 
2420 1 9.22723 2.09177 18.1824 0.0427884 -4.41621 4 
2432 2 12.5459 2.40301 16.1922 0.2545 -4.35488 4 
2440 2 15.647 2.37112 16.1721 0.0101994 -4.40043 4 
2495 2 4.4886 4.88671 16.2108 0.0530957 -4.49192 4 
2503 2 7.6779 4.94003 16.2557 0.0700692 -4.47887 4 
2499 1 7.68636 4.91861 18.1875 0.1163 -4.47232 4 
1626 1 10.8616 2.91683 15.4928 0.169296 -4.50356 4 
2507 1 10.9619 4.76938 18.1888 0.0340263 -4.41412 4 
2511 2 10.8975 4.82741 16.187 0.0100325 -4.40176 4 
2519 2 14.2156 5.12738 16.2429 0.0172183 -4.37779 4 
2515 1 14.0881 4.91949 18.1492 0.0328542 -4.46873 4 
2488 2 2.98925 7.716 16.1229 0.0455961 -4.4608 4 
2496 2 6.04093 7.75678 16.1732 0.0294204 -4.43188 4 
2492 1 6.05874 7.73514 18.127 0.0719584 -4.5002 4 
2504 2 9.36583 7.58478 16.2497 0.0342624 -4.49171 4 
2500 1 9.28371 7.5964 18.1595 0.0345746 -4.49124 4 
2512 2 12.5194 7.67954 16.1442 0.0132462 -4.4608 4 
2508 1 12.4763 7.65411 18.1359 0.0264271 -4.46975 4 
2520 2 15.8336 7.81572 16.2312 0.0329054 -4.42864 4 
2516 1 15.5388 7.86782 18.1663 0.066789 -4.3688 4 
2575 2 4.53055 10.6095 16.1622 0.0957881 -4.48009 4 
2571 1 4.54348 10.5 18.1035 0.0566703 -4.48191 4 
2583 2 7.75501 10.5394 16.2534 0.0420784 -4.47006 4 
2579 1 7.84868 10.4375 18.2067 0.0202132 -4.48209 4 
2591 2 10.9285 10.4073 16.1607 0.0790585 -4.42908 4 
2587 1 11.0086 10.5599 18.1431 0.0228869 -4.4654 4 
2599 2 14.1451 10.3805 16.1373 0.0120782 -4.42806 4 
2595 1 14.1432 10.5089 18.0849 0.0568312 -4.52058 4 
2568 2 2.93136 13.3603 16.1969 0.0867458 -4.51365 4 
2576 2 6.11292 13.3521 16.2336 0.0701367 -4.45737 4 
2572 1 6.25497 13.3422 18.1953 0.0216027 -4.48619 4 
2580 1 9.45738 13.288 18.1876 0.00323162 -4.47378 4 
2584 2 9.36199 13.2755 16.1345 0.0734688 -4.45702 4 
2592 2 12.5379 13.1903 16.1747 0.0674248 -4.3985 4 
2588 1 12.5058 13.2693 18.2459 0.00581805 -4.38469 4 
2596 1 15.7223 13.3126 18.1011 0.036017 -4.48609 4 
2600 2 15.6709 13.25 16.0878 0.0392566 -4.42549 4 
2412 1 6.06578 1.97788 18.243 0.156904 -4.39545 4 
2428 1 12.4988 2.13209 18.1767 0.00845553 -4.43885 4 
2436 1 15.6989 2.26338 18.1112 0.00967644 -4.47061 4 
2491 1 4.49678 4.88862 18.1649 0.0448159 -4.51435 4 
2414 2 4.50425 3.09283 18.8266 0.0484681 -4.45322 4 
2410 1 4.52336 3.09945 20.6984 0.0309413 -4.46777 4 
2422 2 7.6872 3.05829 18.8154 0.0265595 -4.4685 4 
2418 1 7.58657 3.14089 20.7703 0.0455791 -4.48559 4 
2430 2 10.8747 3.03766 18.8402 0.0314293 -4.40959 4 
2426 1 10.7254 3.21367 20.8489 0.00328104 -4.4442 4 
2438 2 14.0076 3.11153 18.7781 0.0174275 -4.44251 4 
2484 1 2.85766 7.60574 18.1152 0.12908 -4.42702 4 
2485 2 2.99353 5.87735 18.8514 0.0142171 -4.46092 4 
2493 2 6.06063 5.92943 18.8548 0.0144483 -4.45923 4 
2489 1 6.08359 5.92029 20.736 0.0848881 -4.48661 4 
2501 2 9.27302 5.76238 18.7316 0.0953881 -4.41636 4 
2497 1 9.14555 5.84353 20.7578 0.0266865 -4.44612 4 
2509 2 12.4632 5.81255 18.9151 0.0297228 -4.46682 4 
2505 1 12.4137 5.90307 20.8736 0.0691362 -4.41871 4 
2517 2 15.5896 5.96205 18.8539 0.079663 -4.45299 4 
2513 1 15.7248 6.01445 20.7275 0.0678359 -4.50127 4 
2494 2 4.46205 8.65291 18.7862 0.0414878 -4.44849 4 
2490 1 4.50565 8.6407 20.8094 0.0273195 -4.49607 4 
2502 2 7.7294 8.59051 18.8068 0.130094 -4.50609 4 
2506 1 10.9036 8.77148 20.7384 0.0815645 -4.4668 4 
2510 2 10.9057 8.63208 18.7612 0.0231324 -4.43658 4 
2518 2 14.0588 8.69848 18.7917 0.00260927 -4.38173 4 
2564 1 2.98486 13.4486 18.1786 0.0319298 -4.47745 4 
2565 2 3.03796 11.566 18.7533 0.0131576 -4.46679 4 
2573 2 6.19506 11.4126 18.8177 0.0614194 -4.43241 4 
2569 1 6.05127 11.443 20.7555 0.0125376 -4.44565 4 
2581 2 9.40992 11.4677 18.7995 0.134878 -4.49815 4 
2589 2 12.6097 11.4895 18.7358 0.120896 -4.46615 4 
2597 2 15.7683 11.468 18.6286 0.0558845 -4.46647 4 
2593 1 15.7038 11.3558 20.6432 0.0168207 -4.4088 4 
3204 1 2.85052 2.24905 23.2824 0.0219317 -4.49282 4 
3208 2 2.96637 2.19487 21.3285 0.0386967 -4.50001 4 
3216 2 5.99673 2.2022 21.414 0.128086 -4.39389 4 
3212 1 6.02953 2.24363 23.4842 0.00394392 -4.26515 4 
3224 2 9.19267 2.18757 21.4376 0.0900241 -4.49669 4 
3232 2 12.4439 2.43826 21.4926 0.030539 -4.43385 4 
3228 1 12.3776 2.20996 23.3514 0.0127649 -4.45101 4 
3240 2 15.6027 2.24047 21.4314 0.0478209 -4.49476 4 
3236 1 15.6784 2.30764 23.4099 0.10442 -4.44149 4 
3295 2 4.46776 4.94332 21.3025 0.0320196 -4.50167 4 
3291 1 4.44387 4.95739 23.2495 0.0141133 -4.48647 4 
3303 2 7.58356 4.95348 21.5202 0.0441772 -4.501 4 
3299 1 7.74027 4.88016 23.4329 0.0460925 -4.41649 4 
3311 2 10.7752 5.01723 21.4315 0.0199252 -4.48388 4 
3307 1 10.8744 4.94876 23.3398 0.0603714 -4.42029 4 
2434 1 14.0753 3.23767 20.7949 0.0807447 -4.49004 4 
3319 2 14.2288 5.06052 21.4678 0.0117094 -4.35679 4 
2481 1 2.88835 5.93763 20.7797 0.0249171 -4.47334 4 
3288 2 2.89269 7.80747 21.5168 0.0251521 -4.48768 4 
3296 2 6.10366 7.70062 21.4382 0.00687022 -4.51207 4 
3292 1 6.21458 7.74961 23.4049 0.0188388 -4.48823 4 
3304 2 9.31173 7.73659 21.3496 0.0404517 -4.46379 4 
3300 1 9.38631 7.78071 23.3213 0.127683 -4.56286 4 
3312 2 12.436 7.78767 21.444 0.0526829 -4.49009 4 
3308 1 12.2358 7.71121 23.3314 0.203748 -4.53802 4 
3320 2 15.6632 7.86553 21.3444 0.0300209 -4.47988 4 
3375 2 4.47888 10.4756 21.4513 0.119764 -4.50498 4 
3371 1 4.5389 10.6073 23.3972 0.00790958 -4.4652 4 
2498 1 7.6985 8.64933 20.6875 0.0596352 -4.48119 4 
3383 2 7.74553 10.4566 21.3541 0.0638988 -4.47032 4 
3379 1 7.74068 10.5408 23.3201 0.00439628 -4.47009 4 
3391 2 10.968 10.6174 21.323 0.0231715 -4.45224 4 
2514 1 14.0355 8.65792 20.7843 0.0609587 -4.48769 4 
3399 2 14.1707 10.4811 21.3489 0.0614262 -4.46777 4 
2561 1 2.9919 11.5106 20.6834 0.031631 -4.51123 4 
3368 2 2.97048 13.3401 21.3656 0.0370209 -4.51658 4 
3364 1 2.96224 13.3842 23.3021 0.0331411 -4.52177 4 
3376 2 6.14858 13.2835 21.4697 0.00871229 -4.47731 4 
3372 1 6.16368 13.3599 23.426 0.0271865 -4.47092 4 
2577 1 9.22596 11.4654 20.7446 0.109272 -4.4477 4 
3384 2 9.33753 13.3166 21.4139 0.0157968 -4.46248 4 
3380 1 9.32513 13.3073 23.294 0.0018182 -4.4794 4 
2585 1 12.5844 11.3866 20.6753 0.0522882 -4.48436 4 
3388 1 12.4666 13.3503 23.266 0.122734 -4.42457 4 
3392 2 12.548 13.2812 21.34 0.185934 -4.48048 4 
3396 1 15.7504 13.2749 23.2731 0.11758 -4.43056 4 
3400 2 15.7687 13.3108 21.3777 0.0380379 -4.42332 4 
3306 1 10.9617 8.73222 25.9091 0.0326828 -4.43392 4 
3220 1 9.23185 2.21217 23.4133 0.0401116 -4.49554 4 
3218 1 7.60904 3.10473 26.0516 0.0580588 -4.48442 4 
3214 2 4.42275 3.1844 24.0045 0.0331026 -4.50939 4 
3222 2 7.6454 3.14468 24.1334 0.0655526 -4.48823 4 
3230 2 10.8084 3.1381 23.9992 0.0225428 -4.52626 4 
3373 2 6.10505 11.4466 24.0717 0.0249358 -4.45078 4 
3315 1 13.9364 5.02946 23.4625 0.143694 -4.38716 4 
3238 2 13.9762 3.24073 24.0292 0.061732 -4.42607 4 
3313 1 15.5661 5.96311 25.8768 0.0139845 -4.48009 4 
3284 1 3.01371 7.88109 23.4221 0.023841 -4.48671 4 
3285 2 2.97623 6.05771 23.992 0.034156 -4.46719 4 
3293 2 6.02888 5.87844 24.0482 0.0932747 -4.35608 4 
3301 2 9.23404 5.93292 24.0639 0.0637864 -4.42867 4 
3385 1 12.5313 11.4943 25.8722 0.0193255 -4.44472 4 
3309 2 12.2829 5.98495 24.0889 0.0575779 -4.45876 4 
3316 1 15.5446 7.80096 23.3052 0.0116442 -4.5081 4 
3317 2 15.4901 6.00154 23.9477 0.0584181 -4.43875 4 
3234 1 14.0353 3.28395 25.9521 0.0473461 -4.50026 4 
3294 2 4.64943 8.70656 24.1174 0.0461536 -4.41466 4 
3290 1 4.4712 8.67009 25.9633 0.0429163 -4.44563 4 
3302 2 7.75442 8.66115 23.9688 0.0345587 -4.47552 4 
3387 1 10.7679 10.5593 23.2793 0.0193521 -4.47458 4 
3310 2 10.8147 8.75935 24.037 0.00679607 -4.40881 4 
3395 1 13.9314 10.603 23.3386 0.054938 -4.44226 4 
3318 2 13.8845 8.68314 23.9095 0.0703142 -4.4186 4 
3365 2 2.92646 11.5388 23.9136 0.0522149 -4.50469 4 
3381 2 9.23173 11.5627 23.9928 0.0213877 -4.46122 4 
3314 1 13.8166 8.63489 25.8979 0.0314455 -4.54745 4 
3369 1 6.09483 11.437 26.0474 0.0749921 -4.49762 4 
3210 1 4.48861 3.16494 25.9429 0.028676 -4.4648 4 
3393 1 15.7261 11.198 25.8658 0.0177972 -4.4999 4 
3361 1 2.9229 11.4557 25.9015 0.00924826 -4.46736 4 
1764 1 2.91501 13.2721 13.0215 0.0476008 -4.51695 4 
1772 1 6.09218 13.2095 12.9278 0.0581672 -4.50945 4 
1699 1 7.68784 5.03071 12.9067 0.0652128 -4.4938 4 
1771 1 4.51513 10.4716 13.0268 0.0186996 -4.47517 4 
1787 1 10.9212 10.4103 12.9383 0.0874801 -4.50866 4 
4008 2 2.91575 2.38769 26.6349 0.0244454 -4.41675 4 
5800 2 15.6697 13.3045 37.0416 0.0411534 -4.49705 4 
4016 2 6.04199 2.08126 26.7 0.0142418 -4.41607 4 
4012 1 6.08873 2.30946 28.6368 0.0765314 -4.47738 4 
4024 2 9.30294 2.32321 26.6956 0.0509737 -4.44844 4 
4020 1 9.29941 2.3524 28.6481 0.0168461 -4.51735 4 
5779 1 7.71369 10.5991 38.9571 0.0136972 -4.4795 4 
4032 2 12.4683 2.39257 26.6159 0.0230153 -4.45468 4 
4040 2 15.6423 2.31696 26.4668 0.03779 -4.47664 4 
4036 1 15.682 2.35632 28.4622 0.0227918 -4.46482 4 
4095 2 4.50382 5.05023 26.5747 0.0278957 -4.47752 4 
4103 2 7.64424 4.94867 26.6022 0.0138785 -4.49253 4 
4099 1 7.59429 5.00522 28.556 0.0955476 -4.5091 4 
5792 2 12.4383 13.2705 37.0279 0.0329029 -4.45727 4 
4111 2 10.7775 5.04303 26.5943 0.0246162 -4.48797 4 
4107 1 10.7781 5.05964 28.5699 0.0277691 -4.48826 4 
4119 2 13.9745 5.04713 26.6671 0.0391141 -4.47581 4 
4088 2 2.85621 7.88123 26.6083 0.0687437 -4.47576 4 
4084 1 2.89989 7.785 28.6162 0.0659856 -4.44124 4 
4096 2 6.09654 7.76643 26.5961 0.0750457 -4.48493 4 
5784 2 9.37512 13.36 36.9924 0.0909856 -4.46171 4 
4104 2 9.25748 7.76437 26.6475 0.0579169 -4.40519 4 
4100 1 9.25199 7.93327 28.5703 0.0681817 -4.55715 4 
4112 2 12.3396 7.76305 26.6198 0.0289193 -4.33255 4 
5795 1 14.0538 10.5899 39.0473 0.0183158 -4.49683 4 
4120 2 15.5121 7.79356 26.4367 0.00225805 -4.43467 4 
4116 1 15.7317 7.86638 28.3734 0.00584445 -4.42629 4 
5776 2 6.16862 13.2588 37.0321 0.137697 -4.49487 4 
4175 2 4.51923 10.5141 26.616 0.0772313 -4.49778 4 
4171 1 4.48168 10.4721 28.5638 0.0673598 -4.49345 4 
4183 2 7.74053 10.4656 26.6072 0.0356208 -4.49376 4 
5764 1 2.91111 13.3425 38.9378 0.0405968 -4.48952 4 
5768 2 2.98626 13.3663 37.0097 0.00810677 -4.48393 4 
4191 2 10.9703 10.4745 26.6131 0.172665 -4.41433 4 
4199 2 13.9999 10.4892 26.5281 0.00580725 -4.466 4 
4195 1 13.9727 10.4934 28.5258 0.131833 -4.45917 4 
4168 2 2.93066 13.2381 26.7438 0.0107081 -4.45613 4 
4164 1 3.05605 13.3238 28.6479 0.0393537 -4.45632 4 
4176 2 6.02356 13.3049 26.6466 0.0366305 -4.46455 4 
4172 1 6.11432 13.2542 28.5822 0.0490864 -4.49436 4 
4184 2 9.30613 13.279 26.619 0.0163558 -4.45813 4 
4180 1 9.31324 13.2389 28.5618 0.0789383 -4.51005 4 
4188 1 12.5322 13.347 28.626 0.0699585 -4.47649 4 
4192 2 12.4319 13.2891 26.6805 0.0921867 -4.46768 4 
4196 1 15.6706 13.2313 28.5585 0.0548309 -4.48476 4 
4200 2 15.6269 13.1252 26.5812 0.0197765 -4.40758 4 
4004 1 2.91468 2.26784 28.5698 0.0168026 -4.63029 4 
4028 1 12.5385 2.43126 28.5486 0.133073 -4.50296 4 
4091 1 4.42548 5.03796 28.4705 0.024477 -4.443 4 
4014 2 4.47806 3.19422 29.2175 0.00812869 -4.49254 4 
4010 1 4.52532 3.22662 31.1753 0.0597221 -4.50697 4 
4022 2 7.67803 3.23754 29.2629 0.097687 -4.50097 4 
4018 1 7.67167 3.16441 31.1435 0.0310643 -4.48635 4 
4030 2 10.8762 3.209 29.2834 0.0400616 -4.49897 4 
4026 1 10.945 3.25207 31.2102 0.104688 -4.49645 4 
4115 1 13.9805 5.2554 28.6141 0.0110807 -4.46602 4 
4038 2 14.1341 3.33072 29.1313 0.0459536 -4.4654 4 
4085 2 2.80637 5.92467 29.3358 0.259122 -4.44188 4 
4092 1 6.04178 7.739 28.5351 0.0218944 -4.492 4 
4093 2 6.01199 5.86505 29.1776 0.0406557 -4.48108 4 
4089 1 6.088 5.88795 31.1805 0.0104768 -4.50886 4 
4101 2 9.16805 5.99125 29.1749 0.260296 -4.43383 4 
4097 1 9.23241 5.98397 31.1631 0.0317987 -4.47173 4 
4108 1 12.4553 7.77993 28.6174 0.0113057 -4.43296 4 
4109 2 12.3247 5.91254 29.2735 0.0183808 -4.4586 4 
4117 2 15.6251 6.12221 29.1808 0.130926 -4.45813 4 
4113 1 15.6748 5.98931 31.1842 0.040007 -4.47914 4 
4094 2 4.50126 8.72671 29.3009 0.0222448 -4.45618 4 
4179 1 7.7758 10.3692 28.5291 0.0235154 -4.5328 4 
4102 2 7.57141 8.57156 29.2731 0.0365328 -4.388 4 
4098 1 7.67897 8.72919 31.2205 0.100644 -4.47679 4 
4187 1 10.9095 10.5127 28.4674 0.0379936 -4.41035 4 
4110 2 10.888 8.70259 29.2739 0.00752016 -4.47715 4 
4118 2 14.1644 8.73943 29.2828 0.052601 -4.38021 4 
4114 1 14.1055 8.71897 31.1826 0.0755589 -4.47929 4 
4165 2 3.02563 11.4621 29.2983 0.0198254 -4.48666 4 
4161 1 2.95247 11.3892 31.2192 0.0400176 -4.52425 4 
4173 2 6.08419 11.4227 29.1294 0.168194 -4.3903 4 
4181 2 9.28469 11.3597 29.1384 0.132096 -4.47734 4 
4177 1 9.22573 11.4473 31.1558 0.0823711 -4.4484 4 
4189 2 12.5234 11.5367 29.2329 0.0593459 -4.44818 4 
4185 1 12.4937 11.5321 31.174 0.082912 -4.43074 4 
4197 2 15.5827 11.4465 29.2072 0.0823461 -4.45922 4 
4193 1 15.7234 11.5051 31.1834 0.0490962 -4.49633 4 
4808 2 2.92608 2.25852 31.8697 0.0171916 -4.47337 4 
4804 1 2.93201 2.26499 33.7984 0.0186128 -4.49169 4 
4816 2 6.06396 2.19013 31.7376 0.0336812 -4.37157 4 
4812 1 6.08576 2.21983 33.6906 0.00631409 -4.44414 4 
4824 2 9.3289 2.32047 31.8349 0.0165721 -4.49104 4 
4832 2 12.5604 2.26325 31.875 0.164657 -4.45573 4 
4840 2 15.6413 2.30733 31.779 0.0136277 -4.4981 4 
4895 2 4.4995 5.03556 31.8375 0.0355231 -4.505 4 
4891 1 4.49156 5.03351 33.8391 0.00842863 -4.49905 4 
4903 2 7.68528 5.02128 31.8074 0.0648935 -4.49506 4 
4899 1 7.78765 5.10621 33.6942 0.0648127 -4.37187 4 
4907 1 10.8375 5.09577 33.9205 0.0423689 -4.41667 4 
4911 2 10.8663 5.06955 31.911 0.108154 -4.4539 4 
4034 1 14.0792 3.30521 31.0905 0.00517651 -4.47066 4 
4919 2 14.0115 5.07225 31.7888 0.126307 -4.49657 4 
4915 1 14.0539 5.09901 33.7566 0.0458545 -4.48571 4 
4081 1 2.89369 5.96056 31.2643 0.020099 -4.51906 4 
4888 2 2.95789 7.83423 31.8365 0.0015924 -4.48693 4 
4884 1 2.81198 7.77251 33.7689 0.0437981 -4.46786 4 
4896 2 6.16838 7.67871 31.9282 0.0576373 -4.43779 4 
4904 2 9.36704 7.84215 31.6914 0.0649386 -4.45453 4 
4900 1 9.29873 7.883 33.6187 0.0388868 -4.4864 4 
4105 1 12.4075 5.98314 31.2334 0.121276 -4.51886 4 
4912 2 12.4325 7.79361 31.8387 0.0352782 -4.46164 4 
4908 1 12.5372 7.84601 33.7024 0.108129 -4.44083 4 
4920 2 15.7061 7.80536 31.782 0.0678469 -4.44649 4 
4090 1 4.68027 8.63625 31.2975 0.00836414 -4.44764 4 
4975 2 4.63361 10.5032 31.7825 0.0180101 -4.43391 4 
4971 1 4.44171 10.6265 33.6575 0.0294732 -4.45445 4 
4983 2 7.63136 10.632 31.7995 0.0321801 -4.47622 4 
4106 1 10.9665 8.82746 31.2065 0.017429 -4.49001 4 
4991 2 10.8077 10.6285 31.8669 0.0573663 -4.4661 4 
4999 2 14.1937 10.5815 31.8304 0.0478194 -4.45756 4 
4995 1 14.197 10.5592 33.7941 0.0387717 -4.45196 4 
4968 2 2.94639 13.1927 31.8909 0.0583054 -4.50334 4 
4964 1 2.9403 13.3123 33.8702 0.0474981 -4.47651 4 
4169 1 6.09227 11.4999 31.1514 0.0404718 -4.42562 4 
4976 2 6.19505 13.2709 31.7176 0.11563 -4.40287 4 
4972 1 5.99352 13.4284 33.6302 0.117894 -4.57871 4 
4984 2 9.48773 13.3672 31.7245 0.118552 -4.38463 4 
4980 1 9.27192 13.367 33.7304 0.0343399 -4.44997 4 
4992 2 12.5563 13.4017 31.8396 0.235401 -4.47254 4 
4988 1 12.5197 13.2794 33.7276 0.22832 -4.42392 4 
4996 1 15.6529 13.3419 33.7153 0.070623 -4.49148 4 
5000 2 15.6681 13.335 31.7868 0.107782 -4.52562 4 
4820 1 9.31007 2.29335 33.7322 0.0988537 -4.50905 4 
4828 1 12.5441 2.22554 33.8191 0.059532 -4.52434 4 
4836 1 15.7579 2.35986 33.7154 0.010701 -4.50236 4 
4814 2 4.49952 3.16763 34.4275 0.0308194 -4.51245 4 
4810 1 4.55012 3.22213 36.3518 0.0141275 -4.50704 4 
4822 2 7.75826 3.22381 34.4106 0.123036 -4.42854 4 
4830 2 10.895 3.15908 34.3828 0.0648167 -4.4705 4 
4838 2 14.1035 3.19134 34.3757 0.0132373 -4.49163 4 
4834 1 14.151 3.27762 36.2949 0.0835976 -4.47895 4 
4885 2 2.88998 5.87584 34.4824 0.0296297 -4.47808 4 
4881 1 2.96453 5.93406 36.4396 0.0291544 -4.4974 4 
4892 1 6.08105 7.8949 33.8543 0.0120391 -4.47098 4 
4893 2 6.02645 6.02056 34.4211 0.119475 -4.38999 4 
4889 1 6.13666 5.91242 36.4019 0.00943657 -4.4562 4 
4901 2 9.30895 6.1041 34.4557 0.189471 -4.47806 4 
4897 1 9.26077 6.04036 36.4188 0.0561365 -4.43669 4 
4909 2 12.4187 5.96879 34.3771 0.0687846 -4.43194 4 
4905 1 12.4182 6.18302 36.3553 0.0247082 -4.44826 4 
4916 1 15.7103 7.88898 33.8409 0.0100816 -4.40627 4 
4917 2 15.6991 6.05663 34.3867 0.0672374 -4.46953 4 
4913 1 15.7538 5.95212 36.3349 0.0349984 -4.45613 4 
4894 2 4.37635 8.78262 34.3791 0.0184109 -4.44235 4 
4979 1 7.61778 10.6071 33.7915 0.0796476 -4.48797 4 
4902 2 7.75873 8.73144 34.3109 0.00847554 -4.49761 4 
4898 1 7.73747 8.78904 36.2161 0.0371973 -4.46003 4 
4987 1 10.894 10.6816 33.7802 0.0380147 -4.40254 4 
4906 1 10.9527 8.69828 36.3603 0.0566429 -4.48454 4 
4910 2 10.896 8.69199 34.3411 0.0367218 -4.41563 4 
4918 2 14.1739 8.77297 34.3841 0.0566137 -4.47174 4 
4914 1 14.1383 8.68976 36.3448 0.038081 -4.48696 4 
4965 2 2.90944 11.4659 34.434 0.0425643 -4.48405 4 
4961 1 2.94534 11.5973 36.3626 0.0404851 -4.43439 4 
4969 1 6.00986 11.4882 36.3045 0.0117348 -4.42872 4 
4973 2 6.01885 11.565 34.4066 0.00493827 -4.45868 4 
4981 2 9.20685 11.5945 34.3695 0.0471932 -4.4759 4 
4977 1 9.29005 11.4906 36.3369 0.0165257 -4.48387 4 
4989 2 12.5408 11.5231 34.5348 0.0853328 -4.44727 4 
4985 1 12.5389 11.4238 36.4392 0.123744 -4.49865 4 
4993 1 15.7988 11.4284 36.3815 0.00389938 -4.47686 4 
4997 2 15.7289 11.5133 34.4923 0.0684095 -4.47622 4 
5608 2 2.94596 2.40855 37.0165 0.0585863 -4.5082 4 
5799 2 14.1653 10.5044 37.0878 0.0354063 -4.47861 4 
5616 2 6.14737 2.27898 37.0208 0.0202149 -4.51421 4 
5612 1 6.1517 2.3705 38.9418 0.0185009 -4.51577 4 
5624 2 9.33327 2.32145 36.978 0.026093 -4.49286 4 
5771 1 4.49409 10.5683 39.1251 0.0513479 -4.48604 4 
5632 2 12.5488 2.33992 36.9795 0.0475011 -4.47797 4 
5640 2 15.6383 2.30116 37.1456 0.155369 -4.48299 4 
5636 1 15.6978 2.33751 39.0709 0.0682747 -4.49501 4 
5716 1 15.6193 7.81025 38.937 0.0621553 -4.50093 4 
5695 2 4.55601 5.02284 37.1009 0.00584473 -4.50994 4 
5628 1 12.5262 2.27296 38.9205 0.00824348 -4.43832 4 
4818 1 7.76045 3.20527 36.3907 0.010268 -4.51198 4 
5703 2 7.78514 5.06587 37.0041 0.053192 -4.48393 4 
5796 1 15.688 13.374 39.0136 0.0550984 -4.50219 4 