ITEM: TIMESTEP
50000
ITEM: NUMBER OF ATOMS
6298
ITEM: BOX BOUNDS pp pp pp
0.0000000000000000e+00 3.1860000999999997e+01
0.0000000000000000e+00 5.5183001000000004e+01
0.0000000000000000e+00 5.2027001000000006e+01
ITEM: ATOMS id type xu yu zu c_1 c_2 c_3 
4 1 2.90086 2.29748 2.55663 0.0407701 -4.45515 4 
12 1 6.09848 2.37523 2.4413 0.0473492 -4.44997 4 
20 1 9.28636 2.3229 2.48987 0.018226 -4.48813 4 
28 1 12.3817 2.39646 2.56361 0.0234852 -4.49312 4 
36 1 15.6534 2.38564 2.58564 0.0290675 -4.49639 4 
91 1 4.59287 5.09917 2.57219 0.0167341 -4.48451 4 
99 1 7.77395 5.06765 2.50598 0.0311517 -4.47545 4 
107 1 10.864 5.14027 2.57246 0.0336341 -4.48798 4 
7226 1 10.8557 3.22679 52.0438 0.0258835 -4.5038 4 
115 1 14.0231 5.11884 2.53048 0.0341117 -4.49358 4 
84 1 3.05544 7.7987 2.52013 0.0150541 -4.45702 4 
92 1 6.10399 7.79923 2.47592 0.0995594 -4.47582 4 
100 1 9.30253 7.77479 2.52305 0.0324492 -4.49539 4 
108 1 12.4709 7.80933 2.46839 0.0404212 -4.48671 4 
116 1 15.6247 7.75523 2.59397 0.00381267 -4.46506 4 
179 1 7.80262 10.5975 2.5429 0.165914 -4.48175 4 
195 1 14.1847 10.5101 2.50655 0.047439 -4.4877 4 
7369 1 6.08129 11.4817 52.0879 0.00998351 -4.47293 4 
180 1 9.36415 13.3636 2.53843 0.0274903 -4.50376 4 
7377 1 9.28565 11.5195 52.0814 0.0140883 -4.50496 4 
196 1 15.7611 13.3823 2.53457 0.135027 -4.50694 4 
14 2 4.50572 3.23633 3.1652 0.0170551 -4.51796 4 
10 1 4.49327 3.21602 5.11341 0.0276612 -4.51464 4 
22 2 7.68334 3.22503 3.2086 0.0189008 -4.50655 4 
18 1 7.66607 3.12664 5.13833 0.0541744 -4.51452 4 
30 2 10.8223 3.3035 3.17302 0.099951 -4.50166 4 
26 1 10.8573 3.15499 5.12957 0.0179295 -4.47931 4 
38 2 14.0151 3.31299 3.22469 0.0130323 -4.45954 4 
34 1 14.1119 3.10178 5.15385 0.0883704 -4.50979 4 
85 2 2.98361 6.01652 3.18469 0.0409769 -4.49961 4 
81 1 2.95783 5.95032 5.17199 0.0174037 -4.48873 4 
93 2 6.21148 6.07177 3.21808 0.0168175 -4.46007 4 
89 1 6.1496 5.97124 5.16097 0.0397735 -4.51015 4 
101 2 9.24296 6.00212 3.1966 0.0328596 -4.4799 4 
97 1 9.27491 5.85567 5.13701 0.0382733 -4.43604 4 
109 2 12.4177 5.99329 3.17773 0.00853684 -4.4949 4 
105 1 12.4273 6.01749 5.1693 0.0289329 -4.46712 4 
117 2 15.6403 5.8683 3.23233 0.0536461 -4.4966 4 
113 1 15.6708 5.92152 5.17524 0.121916 -4.50729 4 
171 1 4.4816 10.6097 2.60257 0.0500283 -4.48822 4 
94 2 4.57708 8.68649 3.18439 0.0392571 -4.47998 4 
90 1 4.58023 8.58683 5.11551 0.0208333 -4.50637 4 
102 2 7.68537 8.74162 3.11184 0.0549726 -4.4438 4 
98 1 7.68961 8.74344 5.16585 0.0419416 -4.44836 4 
187 1 10.8989 10.5237 2.66746 0.113281 -4.43082 4 
110 2 10.8378 8.69197 3.15195 0.0140556 -4.49349 4 
106 1 10.785 8.72736 5.11152 0.01608 -4.47301 4 
118 2 14.089 8.73191 3.13378 0.0235577 -4.49538 4 
114 1 14.0365 8.67072 5.07053 0.0247357 -4.49224 4 
164 1 2.90342 13.3169 2.67717 0.0127111 -4.49465 4 
165 2 2.87516 11.4598 3.18883 0.0388561 -4.449 4 
172 1 6.1979 13.2539 2.68618 0.126413 -4.47294 4 
173 2 6.14743 11.3682 3.23548 0.0397979 -4.43909 4 
181 2 9.34216 11.5493 3.23396 0.0163287 -4.52679 4 
177 1 9.31053 11.4824 5.15402 0.0613794 -4.51469 4 
188 1 12.4971 13.2948 2.60308 0.0196507 -4.49104 4 
189 2 12.6068 11.4177 3.24417 0.0448129 -4.46481 4 
185 1 12.5324 11.4608 5.19745 0.0814584 -4.44564 4 
197 2 15.739 11.5182 3.21342 0.0555161 -4.49673 4 
193 1 15.6571 11.4895 5.13586 0.0751811 -4.49405 4 
808 2 2.98764 2.23157 5.8959 0.0169516 -4.47794 4 
816 2 6.02967 2.31431 5.849 0.0130948 -4.48451 4 
824 2 9.30397 2.27766 5.84188 0.01716 -4.49004 4 
820 1 9.22726 2.26818 7.77559 0.0426967 -4.50611 4 
832 2 12.4499 2.26988 5.82712 0.0589261 -4.4868 4 
828 1 12.4007 2.46918 7.77652 0.0623773 -4.53874 4 
840 2 15.7861 2.40079 5.8131 0.0341003 -4.45743 4 
836 1 15.6999 2.32343 7.71599 0.0397755 -4.49767 4 
895 2 4.56423 5.04889 5.75979 0.0898493 -4.52454 4 
891 1 4.59079 5.14191 7.70757 0.0190204 -4.45638 4 
903 2 7.64315 4.96199 5.83183 0.0819167 -4.4785 4 
899 1 7.76482 5.06274 7.73692 0.0909473 -4.468 4 
911 2 10.8737 5.04302 5.86646 0.0156467 -4.45823 4 
919 2 14.0417 4.99682 5.75115 0.0119823 -4.46276 4 
915 1 14.0012 4.98258 7.71069 0.0652074 -4.5054 4 
888 2 2.96415 7.80939 5.81663 0.00187264 -4.49685 4 
884 1 2.99814 7.82462 7.78503 0.0445208 -4.45534 4 
896 2 6.17945 7.76208 5.80585 0.0248522 -4.50095 4 
892 1 6.11611 7.7611 7.70611 0.0236087 -4.48964 4 
904 2 9.23787 7.79019 5.87797 0.0093102 -4.41699 4 
912 2 12.4349 7.78885 5.7223 0.0192812 -4.47835 4 
908 1 12.4301 7.97693 7.65366 0.0325944 -4.48765 4 
920 2 15.6754 7.78584 5.81024 0.00496997 -4.44014 4 
975 2 4.55646 10.463 5.77721 0.00313878 -4.44139 4 
971 1 4.63436 10.7245 7.70848 0.00806647 -4.58761 4 
983 2 7.71951 10.6234 5.79011 0.0235231 -4.50153 4 
979 1 7.75777 10.4822 7.69364 0.118795 -4.50568 4 
991 2 10.8609 10.5926 5.82553 0.0964603 -4.5061 4 
987 1 10.9029 10.6707 7.7717 0.0176205 -4.46347 4 
999 2 14.1231 10.5574 5.74036 0.0227149 -4.4775 4 
995 1 14.0791 10.6394 7.69461 0.132545 -4.52073 4 
161 1 2.92708 11.3437 5.25267 0.025615 -4.41902 4 
968 2 2.89254 13.2602 5.82069 0.014443 -4.5016 4 
169 1 6.08049 11.4879 5.26347 0.0640485 -4.46697 4 
976 2 6.0665 13.3172 5.85243 0.0505398 -4.50545 4 
972 1 5.99309 13.2175 7.79651 0.0250725 -4.58566 4 
984 2 9.34787 13.2701 5.84185 0.0186845 -4.51205 4 
980 1 9.32594 13.2669 7.7727 0.0660332 -4.50006 4 
992 2 12.5967 13.4185 5.73611 0.0147778 -4.44772 4 
988 1 12.5931 13.425 7.75249 0.0244026 -4.45189 4 
1000 2 15.7456 13.2928 5.82009 0.0604479 -4.49981 4 
996 1 15.8164 13.328 7.79581 0.00745605 -4.5008 4 
804 1 2.8996 2.2754 7.91373 0.0487491 -4.45787 4 
812 1 5.93432 2.22386 7.80867 0.0347869 -4.40914 4 
814 2 4.44951 3.31085 8.48939 0.0107402 -4.42224 4 
822 2 7.6498 3.2296 8.40198 0.0677782 -4.42116 4 
818 1 7.79102 3.22097 10.3215 0.141118 -4.50377 4 
907 1 11.087 4.993 7.81404 0.0642829 -4.58123 4 
830 2 10.8152 3.22437 8.53397 0.0350589 -4.38889 4 
838 2 14.0945 3.23142 8.46959 0.0497895 -4.46063 4 
885 2 2.95353 5.90138 8.42268 0.0371176 -4.47357 4 
881 1 3.02647 5.96554 10.3445 0.0111624 -4.48389 4 
893 2 6.12029 5.95271 8.40103 0.044749 -4.48971 4 
889 1 6.13709 5.96437 10.3623 0.0273264 -4.51173 4 
900 1 9.25738 7.78206 7.88611 0.0513894 -4.50511 4 
901 2 9.42908 5.94748 8.48378 0.0518883 -4.4169 4 
897 1 9.37243 5.87952 10.3817 0.00315246 -4.49525 4 
909 2 12.5785 6.11479 8.36015 0.0234409 -4.40376 4 
905 1 12.4986 5.9704 10.2945 0.00504436 -4.48947 4 
916 1 15.6562 7.78311 7.86074 0.0110531 -4.45535 4 
917 2 15.5986 5.89698 8.37312 0.0124678 -4.46619 4 
913 1 15.6402 6.05748 10.2639 0.0416945 -4.4779 4 
894 2 4.63926 8.83371 8.33757 0.0232565 -4.44311 4 
890 1 4.65266 8.67254 10.2936 0.130791 -4.40893 4 
902 2 7.65083 8.63686 8.41159 0.0205719 -4.44057 4 
898 1 7.79636 8.60253 10.2946 0.111914 -4.49335 4 
910 2 10.8516 8.76957 8.48849 0.0353872 -4.45241 4 
918 2 14.0411 8.79535 8.34459 0.0394109 -4.46926 4 
914 1 14.1535 8.70529 10.2477 0.0676268 -4.42089 4 
964 1 2.84703 13.2996 7.8057 0.0166907 -4.46033 4 
965 2 3.02983 11.542 8.47262 0.0915931 -4.46321 4 
961 1 3.04621 11.4292 10.3926 0.00689109 -4.49876 4 
973 2 6.23034 11.4355 8.42256 0.0105228 -4.39192 4 
969 1 6.15191 11.3712 10.3753 0.0174237 -4.49626 4 
977 1 9.35971 11.448 10.3267 0.0102688 -4.50582 4 
981 2 9.26524 11.4387 8.40869 0.0503433 -4.47666 4 
985 1 12.5301 11.5021 10.3518 0.05556 -4.50085 4 
989 2 12.515 11.525 8.39023 0.0391001 -4.49938 4 
993 1 15.7141 11.4179 10.332 0.0299334 -4.47736 4 
997 2 15.6577 11.504 8.34532 0.0403304 -4.4942 4 
1604 1 2.91528 2.24895 12.9739 0.0643188 -4.48888 4 
1608 2 2.94922 2.33633 11.0363 0.0052795 -4.48241 4 
1616 2 6.17863 2.3708 10.9672 0.0159665 -4.48068 4 
1612 1 6.15114 2.33568 12.9274 0.017292 -4.48695 4 
1624 2 9.37249 2.32465 11.0263 0.0381409 -4.51467 4 
1620 1 9.26708 2.29084 12.9422 0.0381374 -4.50649 4 
1632 2 12.5876 2.28888 11.0584 0.0133711 -4.4985 4 
1640 2 15.6999 2.24503 11.0584 0.04669 -4.47421 4 
1636 1 15.7461 2.25454 12.9686 0.0234758 -4.47832 4 
810 1 4.561 3.19785 10.4995 0.0789423 -4.45205 4 
1695 2 4.64208 5.06536 11.1063 0.0124639 -4.46924 4 
1703 2 7.7191 5.07997 11.0029 0.00838017 -4.48308 4 
826 1 10.9773 3.23084 10.5072 0.0349939 -4.48014 4 
1711 2 11.0024 5.0519 11.0663 0.00627111 -4.49843 4 
1707 1 10.9501 4.95326 13.0028 0.0114755 -4.47963 4 
834 1 14.0879 3.28034 10.4344 0.0299096 -4.48792 4 
1719 2 14.141 5.11615 10.9577 0.000725234 -4.47766 4 
1715 1 14.1067 5.15424 12.8183 0.06874 -4.40349 4 
1688 2 2.96713 7.78986 11.0205 0.0373128 -4.47371 4 
1684 1 2.99447 7.70353 12.9865 0.0738673 -4.49421 4 
1696 2 6.09742 7.77827 10.9867 0.0581046 -4.43119 4 
1692 1 6.11662 7.82587 12.9489 0.0335504 -4.51376 4 
1704 2 9.38649 7.71861 10.9862 0.0150419 -4.45937 4 
1700 1 9.28252 7.75821 12.9907 0.0259554 -4.47815 4 
1712 2 12.458 7.76088 10.981 0.060898 -4.4315 4 
1708 1 12.4548 7.79309 12.9291 0.0231982 -4.51219 4 
1720 2 15.758 7.80198 10.993 0.0291701 -4.4739 4 
1716 1 15.5764 7.73187 12.9869 0.0135681 -4.38961 4 
1775 2 4.59483 10.4646 11.0231 0.0684137 -4.51115 4 
1771 1 4.5627 10.5287 12.958 0.0699192 -4.46489 4 
1783 2 7.77197 10.4642 10.9977 0.0283348 -4.48441 4 
1779 1 7.77242 10.5007 12.9786 0.01013 -4.49671 4 
906 1 10.8707 8.71331 10.4331 0.0970927 -4.46456 4 
1791 2 10.9757 10.5424 10.9232 0.0257061 -4.48444 4 
1787 1 10.8766 10.5456 12.9046 0.027326 -4.50988 4 
1799 2 14.0789 10.5716 10.9285 0.00508788 -4.48762 4 
1795 1 14.0662 10.6562 12.9028 0.0853069 -4.47948 4 
1768 2 2.90135 13.2401 11.049 0.0228902 -4.49109 4 
1776 2 6.11875 13.2234 11.1295 0.0224361 -4.48846 4 
1780 1 9.21957 13.3037 12.9796 0.0905923 -4.47883 4 
1784 2 9.3543 13.2379 10.9562 0.0204173 -4.47247 4 
1792 2 12.511 13.38 11.0018 0.0451668 -4.49986 4 
1788 1 12.4132 13.3211 12.9554 0.0209432 -4.52112 4 
1796 1 15.7271 13.3443 12.9099 0.0189945 -4.48181 4 
1800 2 15.7858 13.2945 10.9768 0.0592909 -4.49982 4 
1628 1 12.4934 2.22336 13.0162 0.0272195 -4.46588 4 
1614 2 4.53574 3.23323 13.6505 0.0341317 -4.47297 4 
1691 1 4.57723 5.06351 13.0789 0.0343691 -4.50302 4 
1622 2 7.72293 3.26152 13.5256 0.0697868 -4.49805 4 
1618 1 7.73526 3.2106 15.5143 0.0130907 -4.47821 4 
1699 1 7.69355 5.12128 13.0155 0.00281901 -4.4897 4 
1630 2 10.8936 3.14677 13.6544 0.0258782 -4.51611 4 
1626 1 10.9247 3.11317 15.5904 0.0401985 -4.49924 4 
1638 2 14.0871 3.23204 13.6235 0.0980202 -4.38653 4 
1634 1 14.0547 3.12094 15.5987 0.0880818 -4.5064 4 
1685 2 2.93893 5.91535 13.729 0.0750565 -4.50605 4 
1693 2 6.15143 6.05381 13.6595 0.0352329 -4.49456 4 
1689 1 6.14908 6.00859 15.5344 0.0142907 -4.48594 4 
1701 2 9.30649 5.93765 13.6509 0.0574961 -4.47955 4 
1697 1 9.35429 5.83612 15.5651 0.0995022 -4.44677 4 
1709 2 12.4473 5.95455 13.5919 0.0444609 -4.46971 4 
1705 1 12.5159 5.99975 15.4824 0.0214204 -4.49647 4 
1717 2 15.6576 6.02722 13.575 0.043948 -4.36771 4 
1713 1 15.6965 5.82074 15.5895 0.132349 -4.42643 4 
1694 2 4.55764 8.70954 13.6273 0.0270932 -4.50556 4 
1690 1 4.58731 8.75591 15.5345 0.281409 -4.51571 4 
1702 2 7.67332 8.71981 13.5524 0.036566 -4.47767 4 
1698 1 7.76398 8.59965 15.494 0.130076 -4.43817 4 
1710 2 10.9079 8.74701 13.5354 0.0417322 -4.49724 4 
1706 1 10.8669 8.72169 15.4527 0.0137747 -4.48827 4 
1718 2 14.0535 8.72448 13.5646 0.0160633 -4.48164 4 
1714 1 14.0887 8.67054 15.4742 0.0556275 -4.47776 4 
1765 2 2.86647 11.5083 13.6032 0.032925 -4.44607 4 
1761 1 2.89902 11.4598 15.5964 0.0344136 -4.5071 4 
1764 1 2.89944 13.3827 13.0141 0.0579307 -4.48102 4 
1773 2 6.16546 11.4254 13.6516 0.00293817 -4.51493 4 
1772 1 6.08558 13.2674 13.0299 0.0212632 -4.50092 4 
1781 2 9.32468 11.4479 13.5864 0.0384911 -4.51704 4 
1777 1 9.30515 11.522 15.5427 0.0278698 -4.48786 4 
1789 2 12.4561 11.4847 13.525 0.0222943 -4.51104 4 
1785 1 12.4592 11.4877 15.4962 0.0966704 -4.45489 4 
1797 2 15.6618 11.5151 13.5828 0.02199 -4.49795 4 
1793 1 15.6095 11.3391 15.5655 0.0345008 -4.42589 4 
2408 2 2.94615 2.2747 16.2577 0.045594 -4.51342 4 
2404 1 2.87811 2.32693 18.1974 0.0311273 -4.4841 4 
2416 2 6.12965 2.27062 16.2029 0.0713173 -4.50281 4 
2412 1 6.07268 2.27404 18.1475 0.0478109 -4.49344 4 
2424 2 9.3224 2.26061 16.1511 0.0237146 -4.47314 4 
2420 1 9.29077 2.29936 18.1705 0.00190361 -4.49499 4 
2432 2 12.4465 2.15975 16.2219 0.0485536 -4.50267 4 
2428 1 12.4499 2.19226 18.2021 0.0801346 -4.47485 4 
2440 2 15.6763 2.33503 16.264 0.0648789 -4.50969 4 
1610 1 4.56707 3.18418 15.6182 0.0741473 -4.50491 4 
2495 2 4.55774 5.06708 16.2212 0.0104102 -4.50846 4 
2491 1 4.56226 5.10795 18.1476 0.0284802 -4.51865 4 
2503 2 7.77656 5.10245 16.21 0.0650878 -4.44174 4 
2499 1 7.84465 5.04597 18.1124 0.0478756 -4.51176 4 
2511 2 10.98 4.9957 16.1888 0.0236627 -4.50329 4 
2507 1 10.9219 5.06246 18.1213 0.0320638 -4.49253 4 
2519 2 14.0079 4.95145 16.2356 0.020036 -4.47971 4 
2515 1 14.0445 4.9785 18.1254 0.0507727 -4.47791 4 
1681 1 2.96758 6.0077 15.6382 0.108819 -4.51063 4 
2488 2 2.9573 7.88393 16.2052 0.0131115 -4.47929 4 
2496 2 6.12321 7.84775 16.1835 0.0464302 -4.47111 4 
2492 1 6.22152 7.84406 18.053 0.0202366 -4.48501 4 
2504 2 9.32494 7.66693 16.128 0.0293584 -4.497 4 
2500 1 9.4337 7.79904 18.0815 0.0679114 -4.5068 4 
2512 2 12.4935 7.83798 16.0738 0.0395167 -4.48544 4 
2508 1 12.5749 7.79191 18.0644 0.066452 -4.47981 4 
2520 2 15.691 7.72112 16.2286 0.0285533 -4.45516 4 
2516 1 15.7214 7.73991 18.1903 0.0121677 -4.49015 4 
2575 2 4.49027 10.5745 16.2428 0.0349417 -4.51995 4 
2571 1 4.50496 10.5375 18.1656 0.107118 -4.48596 4 
2583 2 7.75046 10.5316 16.2233 0.0148066 -4.435 4 
2579 1 7.73431 10.5334 18.1799 0.0454838 -4.48121 4 
2591 2 10.9469 10.5639 16.1964 0.0849502 -4.47816 4 
2587 1 10.9324 10.5855 18.1471 0.051803 -4.52738 4 
2599 2 14.0673 10.4727 16.2458 0.0964487 -4.45048 4 
2595 1 14.1463 10.6139 18.1304 0.0567192 -4.48297 4 
2568 2 2.95001 13.2534 16.3492 0.0823098 -4.46872 4 
1769 1 6.0667 11.449 15.6122 0.0166586 -4.47168 4 
2576 2 6.15086 13.308 16.268 0.155308 -4.48268 4 
2572 1 6.11897 13.1453 18.192 0.00408605 -4.47104 4 
2584 2 9.34404 13.366 16.1529 0.0435135 -4.50482 4 
2580 1 9.37538 13.2606 18.1181 0.00151927 -4.48409 4 
2592 2 12.4357 13.364 16.1188 0.0378872 -4.47141 4 
2588 1 12.5538 13.2779 18.1144 0.00740088 -4.4693 4 
2600 2 15.684 13.2991 16.1709 0.0283143 -4.46026 4 
2596 1 15.7991 13.2818 18.1366 0.0795414 -4.42215 4 
2436 1 15.6946 2.28861 18.2498 0.152977 -4.48412 4 
2414 2 4.51615 3.23665 18.7485 0.0359668 -4.49475 4 
2410 1 4.54294 3.21319 20.7713 0.0276651 -4.47749 4 
2422 2 7.72651 3.22136 18.8121 0.0145061 -4.50254 4 
2418 1 7.66375 3.25127 20.7833 0.0895603 -4.48531 4 
2430 2 10.9125 3.18327 18.793 0.0593727 -4.50986 4 
2426 1 10.8959 3.18285 20.7545 0.062293 -4.50714 4 
2438 2 14.1029 3.14834 18.8816 0.125951 -4.46817 4 
2484 1 2.86496 7.88316 18.2105 0.0458167 -4.47409 4 
2485 2 2.98829 6.02588 18.8308 0.0025246 -4.50987 4 
2481 1 2.88687 6.0386 20.7829 0.0682592 -4.50776 4 
2493 2 6.2166 5.96805 18.7143 0.0735944 -4.48916 4 
2489 1 6.07171 5.96671 20.6815 0.0346611 -4.42881 4 
2501 2 9.37559 6.00306 18.7882 0.0324839 -4.50432 4 
2497 1 9.40341 5.93248 20.7724 0.0394438 -4.49519 4 
2509 2 12.4867 5.95429 18.7458 0.010563 -4.51851 4 
2505 1 12.5025 5.94111 20.6944 0.0269379 -4.51943 4 
2517 2 15.6505 5.89549 18.9083 0.0495722 -4.46218 4 
2494 2 4.56371 8.72561 18.7489 0.0202134 -4.42803 4 
2490 1 4.61421 8.71628 20.7999 0.0843908 -4.44932 4 
2502 2 7.81179 8.70165 18.7222 0.053968 -4.50426 4 
2498 1 7.88291 8.64836 20.6807 0.0355905 -4.45764 4 
2510 2 10.9972 8.75377 18.7298 0.146681 -4.50855 4 
2506 1 10.9552 8.63673 20.692 0.0512792 -4.48356 4 
2518 2 14.1429 8.77251 18.8421 0.057517 -4.46733 4 
2514 1 14.1475 8.71531 20.7854 0.0444956 -4.49421 4 
2564 1 2.95352 13.3494 18.2938 0.104526 -4.50381 4 
2565 2 2.89505 11.5012 18.8696 0.0447431 -4.48522 4 
2573 2 6.12994 11.3071 18.8639 0.0885864 -4.50853 4 
2581 2 9.37778 11.4768 18.8626 0.0665434 -4.4959 4 
2577 1 9.37108 11.42 20.8053 0.0401321 -4.49876 4 
2589 2 12.5232 11.4578 18.8247 0.10032 -4.51067 4 
2585 1 12.5429 11.3536 20.7213 0.0519882 -4.49036 4 
2593 1 15.7368 11.3925 20.7966 0.0847321 -4.4818 4 
2597 2 15.8048 11.3297 18.8472 0.0534049 -4.40179 4 
3208 2 2.94836 2.38037 21.5008 0.0069113 -4.49713 4 
3216 2 6.10813 2.32353 21.4825 0.0760232 -4.48142 4 
3212 1 6.2028 2.2639 23.3187 0.0806425 -4.47032 4 
3224 2 9.2903 2.29545 21.3874 0.0420256 -4.51216 4 
3220 1 9.34433 2.27218 23.349 0.00806451 -4.51112 4 
3232 2 12.4689 2.27354 21.44 0.05953 -4.5114 4 
3240 2 15.6724 2.23788 21.4055 0.0095372 -4.5003 4 
3236 1 15.7725 2.21343 23.3427 0.0179812 -4.49948 4 
3295 2 4.44978 5.02226 21.3805 0.00939066 -4.47573 4 
3291 1 4.44253 5.01006 23.3617 0.0676202 -4.47041 4 
3303 2 7.77716 5.11703 21.4697 0.0222246 -4.42687 4 
3299 1 7.73779 4.95053 23.3726 0.00828523 -4.4962 4 
3311 2 10.9937 4.98408 21.3185 0.00675619 -4.47122 4 
3307 1 10.844 4.9866 23.3169 0.0523074 -4.47395 4 
2434 1 14.0861 3.1367 20.8597 0.0316918 -4.49707 4 
3319 2 14.0511 5.02408 21.3922 0.0768735 -4.50796 4 
3315 1 13.9803 4.99705 23.3287 0.0493572 -4.49795 4 
3288 2 2.97922 7.87011 21.4769 0.0337632 -4.47623 4 
3284 1 2.83105 7.73679 23.3806 0.0216357 -4.4957 4 
3296 2 6.18284 7.77594 21.3455 0.0090833 -4.46836 4 
3292 1 6.08402 7.79453 23.3113 0.0710649 -4.48439 4 
3304 2 9.37902 7.81658 21.3771 0.0233679 -4.44877 4 
3300 1 9.29967 7.80043 23.3596 0.0248602 -4.51346 4 
3312 2 12.5406 7.71989 21.4542 0.0331897 -4.48849 4 
3308 1 12.4123 7.77732 23.4061 0.0164407 -4.51101 4 
2513 1 15.6891 5.91335 20.864 0.0658878 -4.50325 4 
3320 2 15.7138 7.78788 21.4773 0.0336146 -4.47 4 
3316 1 15.5533 7.7607 23.35 0.0685874 -4.48608 4 
3375 2 4.54692 10.5707 21.5265 0.0908532 -4.45973 4 
3383 2 7.81328 10.4468 21.3972 0.045861 -4.49023 4 
3379 1 7.62503 10.5255 23.3153 0.0148947 -4.50944 4 
3391 2 10.9728 10.4189 21.3736 0.0417417 -4.46939 4 
3387 1 10.8365 10.5189 23.3662 0.104899 -4.48681 4 
3399 2 14.1304 10.5032 21.5247 0.038977 -4.47012 4 
2561 1 2.9412 11.474 20.854 0.0244021 -4.47148 4 
3368 2 3.12597 13.4317 21.3975 0.0951443 -4.41377 4 
3364 1 2.87258 13.3695 23.3717 0.129583 -4.47778 4 
2569 1 6.21618 11.4088 20.8216 0.00509457 -4.49565 4 
3376 2 6.20662 13.2006 21.5716 0.0521922 -4.47317 4 
3380 1 9.30968 13.3056 23.405 0.0157546 -4.5083 4 
3384 2 9.32906 13.2849 21.4898 0.022188 -4.43069 4 
3388 1 12.3707 13.2715 23.2841 0.0516659 -4.45384 4 
3392 2 12.3843 13.2192 21.3605 0.0496319 -4.46784 4 
3396 1 15.6071 13.1997 23.2481 0.0444605 -4.45742 4 
3400 2 15.5904 13.287 21.2981 0.029062 -4.4818 4 
3204 1 2.95973 2.33646 23.4179 0.023746 -4.49223 4 
3228 1 12.4756 2.22224 23.4151 0.162871 -4.45683 4 
3214 2 4.59366 3.156 23.963 0.00586831 -4.48381 4 
3210 1 4.59886 3.06511 25.9212 0.00519921 -4.48741 4 
3222 2 7.7362 3.12781 24.0747 0.0231813 -4.5148 4 
3230 2 10.9049 3.18475 24.0488 0.0188566 -4.51359 4 
3238 2 14.1799 3.14112 23.9647 0.0199655 -4.48077 4 
3234 1 14.1524 3.08115 25.9308 0.0704303 -4.46836 4 
3285 2 2.83903 5.92902 24.0075 0.0212747 -4.5176 4 
3281 1 2.88446 5.85857 25.9059 0.0506331 -4.50493 4 
3293 2 6.15121 5.89185 23.9938 0.0252283 -4.43834 4 
3289 1 6.04267 5.88846 25.8808 0.0467539 -4.49679 4 
3301 2 9.27699 5.95688 23.9733 0.030074 -4.50174 4 
3297 1 9.22536 5.90955 25.9495 0.0385422 -4.50926 4 
3309 2 12.4334 5.92507 24.0695 0.0282944 -4.48173 4 
3317 2 15.4926 5.92063 24.0078 0.022142 -4.45351 4 
3313 1 15.6836 5.82714 25.9616 0.199555 -4.44077 4 
3371 1 4.44064 10.5227 23.4319 0.0298917 -4.48985 4 
3290 1 4.50963 8.58295 25.9271 0.0163302 -4.49181 4 
3294 2 4.42914 8.67211 23.9742 0.078072 -4.50534 4 
3302 2 7.64355 8.71126 23.9943 0.0649022 -4.49418 4 
3298 1 7.72784 8.67677 25.9336 0.0966433 -4.50781 4 
3306 1 10.9095 8.70166 25.9755 0.0271441 -4.48646 4 
3310 2 10.868 8.74415 24.0217 0.0441342 -4.49306 4 
3395 1 13.9184 10.6024 23.4562 0.0514744 -4.45443 4 
3318 2 13.9636 8.71416 24.031 0.0254483 -4.47649 4 
3365 2 2.87001 11.5539 24.0379 0.0958028 -4.49921 4 
3361 1 2.94819 11.385 26.0014 0.0177204 -4.47363 4 
3372 1 6.09249 13.3158 23.4584 0.0527771 -4.47322 4 
3373 2 6.05966 11.4628 24.0131 0.0113102 -4.49918 4 
3369 1 6.02246 11.5024 25.9912 0.119059 -4.46104 4 
3381 2 9.22586 11.4307 23.9822 0.104214 -4.49913 4 
3377 1 9.17813 11.3422 25.8869 0.0257987 -4.47367 4 
3389 2 12.3882 11.4992 24.0839 0.0112716 -4.48686 4 
3385 1 12.4761 11.4443 25.9907 0.0170074 -4.49185 4 
3397 2 15.6281 11.4119 23.9039 0.0799069 -4.42767 4 
3393 1 15.749 11.4012 25.9787 0.00757339 -4.39847 4 
4008 2 2.95626 2.21944 26.5482 0.0230523 -4.50748 4 
4004 1 2.93275 2.28026 28.4919 0.0189397 -4.49804 4 
4016 2 6.14052 2.15845 26.6222 0.0273399 -4.49642 4 
4012 1 6.14247 2.21422 28.492 0.0167494 -4.48686 4 
4024 2 9.28746 2.21054 26.663 0.0456062 -4.52774 4 
4032 2 12.5209 2.23078 26.634 0.158321 -4.44359 4 
4028 1 12.4932 2.08291 28.5442 0.012132 -4.48291 4 
4040 2 15.6964 2.19758 26.6703 0.00974977 -4.5065 4 
4095 2 4.45692 4.9276 26.5323 0.0164241 -4.48886 4 
4091 1 4.50439 4.96788 28.5604 0.0185667 -4.44553 4 
4103 2 7.62234 5.01 26.569 0.0135023 -4.52678 4 
4099 1 7.6116 5.00705 28.5268 0.0275595 -4.43893 4 
3218 1 7.71611 3.15687 26.0154 0.00609076 -4.52158 4 
4111 2 10.8167 4.99907 26.6248 0.0236268 -4.50739 4 
4107 1 10.7675 4.98045 28.5381 0.0153948 -4.48738 4 
3226 1 10.8747 3.12484 26.0288 0.0112188 -4.52037 4 
4119 2 13.9578 4.94757 26.6781 0.00679057 -4.39178 4 
4088 2 2.883 7.7032 26.5664 0.0708981 -4.48716 4 
4084 1 2.89643 7.69584 28.432 0.0851654 -4.4721 4 
4096 2 6.09565 7.72572 26.486 0.00501183 -4.48567 4 
4092 1 6.10923 7.74305 28.3821 0.126167 -4.47907 4 
4104 2 9.31116 7.767 26.5643 0.00412758 -4.50477 4 
4100 1 9.21401 7.66429 28.5663 0.136375 -4.47413 4 
4112 2 12.5081 7.74356 26.6343 0.00694275 -4.48607 4 
4108 1 12.459 7.74885 28.5384 0.018061 -4.49499 4 
3305 1 12.3821 5.96107 26.062 0.0239419 -4.49725 4 
4120 2 15.6571 7.62133 26.5324 0.0140516 -4.46606 4 
4116 1 15.6778 7.648 28.4908 0.0585773 -4.48886 4 
4175 2 4.5822 10.4193 26.6955 0.132649 -4.44444 4 
4171 1 4.54811 10.4936 28.601 0.0564743 -4.47141 4 
4183 2 7.60343 10.4756 26.5763 0.0408713 -4.43525 4 
4191 2 10.8665 10.518 26.4753 0.0896722 -4.46514 4 
4187 1 10.8245 10.4639 28.439 0.074612 -4.48142 4 
4199 2 14.0654 10.5253 26.6512 0.0713921 -4.4992 4 
4195 1 14.0606 10.4989 28.5881 0.0451749 -4.50605 4 
3314 1 14.0551 8.68663 26.0251 0.0312597 -4.48261 4 
4164 1 2.85366 13.3287 28.5215 0.122701 -4.44938 4 
4168 2 2.94025 13.2536 26.5979 0.0248302 -4.49099 4 
4176 2 6.1639 13.2879 26.676 0.0153655 -4.47295 4 
4172 1 5.95124 13.2229 28.5628 0.0253577 -4.45555 4 
4184 2 9.31306 13.2388 26.5239 0.0224764 -4.47757 4 
4180 1 9.19574 13.1725 28.4808 0.0085227 -4.51156 4 
4192 2 12.4634 13.2125 26.6298 0.0575908 -4.47433 4 
4188 1 12.4721 13.2365 28.5272 0.0438348 -4.50137 4 
4200 2 15.6289 13.223 26.6192 0.00578067 -4.44935 4 
4196 1 15.7555 13.399 28.5687 0.0855394 -4.45993 4 
4020 1 9.2801 2.20492 28.618 0.0486457 -4.50363 4 
4036 1 15.6233 2.20981 28.6209 0.0175645 -4.51748 4 
4014 2 4.58039 3.15802 29.1927 0.0240522 -4.46529 4 
4010 1 4.41391 3.0728 31.2014 0.0474404 -4.48949 4 
4022 2 7.72087 3.09129 29.2397 0.00226268 -4.46715 4 
4018 1 7.57974 3.17882 31.1542 0.151132 -4.49004 4 
4030 2 10.8873 3.09996 29.1541 0.0206892 -4.47639 4 
4026 1 10.88 3.08523 31.0655 0.057324 -4.47775 4 
4115 1 14.0436 5.02439 28.6482 0.0411557 -4.49213 4 
4038 2 13.9754 3.13388 29.2775 0.0230494 -4.45293 4 
4034 1 13.971 3.09963 31.1962 0.0784868 -4.50241 4 
4085 2 2.80463 5.85573 29.239 0.0514119 -4.43131 4 
4081 1 2.8729 5.85446 31.1774 0.0241651 -4.52311 4 
4093 2 6.08543 5.93041 29.121 0.0418921 -4.48523 4 
4089 1 6.0316 5.94573 31.1207 0.0461677 -4.46673 4 
4101 2 9.25217 5.86932 29.1964 0.0945581 -4.49512 4 
4097 1 9.19787 5.84834 31.1172 0.0139012 -4.50615 4 
4109 2 12.4023 5.91409 29.2168 0.0454486 -4.47439 4 
4105 1 12.3874 6.00081 31.1452 0.0328489 -4.45521 4 
4117 2 15.6759 5.86509 29.2149 0.0115908 -4.50174 4 
4113 1 15.6559 5.93596 31.1329 0.0318448 -4.49047 4 
4094 2 4.48589 8.5657 29.0987 0.0458145 -4.4686 4 
4090 1 4.47346 8.74602 31.0646 0.102607 -4.47635 4 
4179 1 7.56633 10.4798 28.6315 0.0975848 -4.43433 4 
4102 2 7.70316 8.62419 29.1783 0.0166594 -4.48451 4 
4098 1 7.62935 8.66889 31.0987 0.0816468 -4.49195 4 
4110 2 10.8184 8.60696 29.1833 0.0984869 -4.45517 4 
4106 1 10.7672 8.54173 31.2109 0.0291604 -4.46706 4 
4118 2 14.0662 8.62221 29.1471 7.13837e-05 -4.51683 4 
4114 1 14.0365 8.63315 31.1065 0.00483125 -4.49526 4 
4165 2 2.93966 11.4115 29.1507 0.0206013 -4.43027 4 
4161 1 2.84147 11.5966 31.1528 0.00963254 -4.44114 4 
4173 2 6.0637 11.4476 29.2893 0.0143185 -4.49171 4 
4169 1 6.08563 11.4695 31.1636 0.0547832 -4.47701 4 
4181 2 9.24235 11.3316 29.0962 0.0243874 -4.49235 4 
4177 1 9.28581 11.2996 31.1029 0.0808746 -4.4382 4 
4189 2 12.4312 11.4041 29.1676 0.16648 -4.51483 4 
4185 1 12.339 11.3925 31.1016 0.0293746 -4.5047 4 
4197 2 15.6027 11.4716 29.1626 0.0727167 -4.42768 4 
4193 1 15.5756 11.3314 31.1015 0.0225379 -4.48537 4 
4808 2 2.79 2.34248 31.9385 0.02463 -4.47159 4 
4816 2 6.03899 2.23997 31.7804 0.0529859 -4.49254 4 
4812 1 6.03085 2.19753 33.7782 0.0626712 -4.4371 4 
4824 2 9.21682 2.20074 31.8129 0.0830851 -4.43036 4 
4820 1 9.20991 2.23792 33.7684 0.0325013 -4.5088 4 
4832 2 12.376 2.17219 31.7979 0.0121107 -4.49656 4 
4828 1 12.4246 2.24895 33.7439 0.0379322 -4.49975 4 
4840 2 15.6119 2.24057 31.8282 0.0395531 -4.50979 4 
4836 1 15.5277 2.28236 33.7485 0.0296845 -4.49347 4 
4895 2 4.46486 4.90344 31.7876 0.0357725 -4.48271 4 
4891 1 4.52056 5.03757 33.7458 0.0601182 -4.4973 4 
4903 2 7.63009 5.00201 31.8619 0.0176087 -4.50587 4 
4899 1 7.64066 4.99593 33.7687 0.0646903 -4.52766 4 
4911 2 10.8298 4.9376 31.7004 0.00914853 -4.48711 4 
4907 1 10.821 5.06167 33.7033 0.00522815 -4.43164 4 
4919 2 14.0001 5.00263 31.7047 0.0177895 -4.47022 4 
4915 1 14.0566 5.12097 33.6701 0.00447746 -4.48788 4 
4888 2 2.91058 7.68731 31.7396 0.151594 -4.48006 4 
4884 1 2.97143 7.71244 33.6606 0.0560864 -4.48149 4 
4896 2 6.01301 7.72434 31.7482 0.00402449 -4.49366 4 
4892 1 5.99929 7.73477 33.6821 0.00542837 -4.4887 4 
4904 2 9.19658 7.63936 31.7702 0.0767376 -4.49493 4 
4900 1 9.17119 7.69778 33.7406 0.0304168 -4.49207 4 
4912 2 12.3923 7.74452 31.8195 0.0117679 -4.4881 4 
4908 1 12.4222 7.79993 33.756 0.0287813 -4.50438 4 
4920 2 15.5636 7.76467 31.8079 0.0725255 -4.50395 4 
4916 1 15.5885 7.85951 33.7592 0.0033075 -4.49313 4 
4975 2 4.40813 10.5763 31.7337 0.034672 -4.45832 4 
4971 1 4.49567 10.6677 33.7592 0.085586 -4.45666 4 
4983 2 7.65246 10.4832 31.8176 0.107405 -4.51871 4 
4979 1 7.63829 10.4922 33.7675 0.0389626 -4.49584 4 
4991 2 10.7748 10.3922 31.7472 0.0294769 -4.45657 4 
4987 1 10.901 10.4506 33.7518 0.0751853 -4.45445 4 
4999 2 13.9554 10.4558 31.7577 0.058563 -4.50939 4 
4995 1 14.0371 10.5874 33.7232 0.0245727 -4.47251 4 
4968 2 2.89788 13.391 31.8514 0.0747196 -4.49841 4 
4964 1 2.84805 13.3799 33.7956 0.042293 -4.51802 4 
4976 2 6.07387 13.3406 31.7531 0.0496439 -4.4898 4 
4972 1 6.05867 13.4632 33.6377 0.0527981 -4.56934 4 
4984 2 9.19313 13.193 31.7765 0.0135089 -4.47599 4 
4980 1 9.20433 13.2323 33.7625 0.071898 -4.61356 4 
4992 2 12.3535 13.248 31.8003 0.0118766 -4.48646 4 
4988 1 12.4381 13.2883 33.7281 0.0110644 -4.5372 4 
5000 2 15.6564 13.2446 31.6803 0.00484026 -4.40692 4 
4996 1 15.8177 13.2685 33.7227 0.0295908 -4.51869 4 
4804 1 2.85685 2.31378 33.8472 0.0497612 -4.49086 4 
4814 2 4.44362 3.25098 34.4351 0.0539414 -4.48959 4 
4810 1 4.43543 3.27225 36.3685 0.0185697 -4.51563 4 
4822 2 7.64464 3.17276 34.4239 0.0202888 -4.5033 4 
4818 1 7.64069 3.15842 36.3422 0.0440886 -4.49451 4 
4830 2 10.8441 3.20047 34.4292 0.00459675 -4.45131 4 
4826 1 10.8167 3.36073 36.3079 0.0814765 -4.47078 4 
4838 2 13.9528 3.28776 34.3884 0.0281997 -4.50219 4 
4834 1 13.9639 3.25073 36.3415 0.0461328 -4.48873 4 
4885 2 2.88847 5.88138 34.3488 0.183096 -4.52815 4 
4881 1 2.862 6.03128 36.2713 0.0155048 -4.49735 4 
4893 2 6.10953 5.96346 34.4164 0.0943893 -4.47891 4 
4889 1 6.10792 6.02085 36.267 0.0379873 -4.40264 4 
4901 2 9.17354 5.90479 34.4257 0.0325311 -4.48071 4 
4897 1 9.31408 5.89075 36.3443 0.0818079 -4.51717 4 
4909 2 12.4723 5.98336 34.4245 0.0231829 -4.47587 4 
4905 1 12.4821 5.93414 36.3899 0.111663 -4.51518 4 
4917 2 15.6091 5.96471 34.3969 0.0919885 -4.44678 4 
4913 1 15.7037 5.99613 36.3979 0.0373277 -4.47824 4 
4894 2 4.45509 8.76671 34.2865 0.0394109 -4.4718 4 
4890 1 4.4346 8.69171 36.2781 0.114455 -4.49123 4 
4902 2 7.56644 8.62985 34.4632 0.0993961 -4.45968 4 
4910 2 10.8141 8.56707 34.4207 0.0424447 -4.48464 4 
4906 1 10.8146 8.60759 36.3414 0.0406813 -4.51306 4 
4918 2 13.9725 8.75206 34.4498 0.184469 -4.50592 4 
4914 1 14.0582 8.74334 36.3752 0.00646148 -4.4876 4 
4965 2 2.8244 11.5534 34.4207 0.0306587 -4.44428 4 
4973 2 6.08285 11.6005 34.3455 0.0263702 -4.44567 4 
4969 1 6.15508 11.5022 36.3421 0.0274424 -4.48333 4 
4981 2 9.23857 11.3711 34.3918 0.0528001 -4.46368 4 
4977 1 9.31911 11.4759 36.377 0.0393708 -4.49373 4 
4989 2 12.4743 11.4565 34.3335 0.0751595 -4.4926 4 
4985 1 12.4163 11.3555 36.2258 0.0381363 -4.40219 4 
4993 1 15.6015 11.4857 36.3081 0.0429592 -4.48449 4 
4997 2 15.7286 11.4173 34.4114 0.027049 -4.46104 4 
5608 2 2.79713 2.43504 37.0303 0.0158036 -4.47637 4 
5604 1 2.91902 2.29215 39.0042 0.0316579 -4.48867 4 
5616 2 6.00846 2.33409 37.0361 0.146445 -4.52472 4 
5612 1 6.05492 2.32047 38.9856 0.0299783 -4.52732 4 
5624 2 9.30364 2.32597 36.9156 0.0127281 -4.48376 4 
5620 1 9.2798 2.30803 38.9168 0.0353453 -4.48143 4 
5632 2 12.348 2.30451 37.0425 0.0310704 -4.46284 4 
5628 1 12.4474 2.33711 38.9561 0.0446329 -4.48582 4 
5640 2 15.5685 2.27119 37.0374 0.0641399 -4.49585 4 
5636 1 15.7009 2.31938 38.969 0.0162053 -4.44917 4 
5695 2 4.42023 5.14452 36.982 0.0725754 -4.46102 4 
5691 1 4.37718 5.07665 38.9548 0.0218725 -4.48933 4 
5703 2 7.70343 4.95248 36.99 0.0480615 -4.4535 4 
5699 1 7.69517 5.0791 38.9548 0.0790934 -4.49723 4 
5711 2 10.8931 5.09434 37.0518 0.00103709 -4.48437 4 
5707 1 10.9107 5.00059 38.975 0.0292272 -4.52078 4 
5719 2 14.0413 5.05362 37.0043 0.0492606 -4.47807 4 
5715 1 14.1526 5.0725 38.9983 0.00527861 -4.47999 4 